# vtk DataFile Version 3.0
vtk output
ASCII
DATASET POLYDATA
FIELD FieldData 4
BOXWIDTH 1 1 double
4.23232 
TEMP 1 1 double
0.728 
DISC 1 1 double
0.01 
MASS 1 1 double
48 
POINTS 64 double
-1.57349 -1.59228 -1.57682 -1.57509 -1.5711 -0.542746 -1.59393 -1.57692 0.518558 
-1.58528 -1.58901 1.59113 -1.59301 -0.529496 -1.56969 -1.56997 -0.524176 -0.521442 
-1.60218 -0.525439 0.507981 -1.59788 -0.544877 1.59836 -1.60123 0.524149 -1.60372 
-1.60343 0.548663 -0.542017 -1.58667 0.542184 0.532321 -1.59577 0.53377 1.58673 
-1.58751 1.60558 -1.59675 -1.57601 1.58751 -0.519371 -1.59127 1.60245 0.519004 
-1.59313 1.59886 1.60294 -0.546799 -1.56949 -1.58739 -0.54605 -1.60082 -0.523739 
-0.513045 -1.59419 0.509771 -0.548845 -1.58979 1.56775 -0.539925 -0.510401 -1.57196 
-0.514705 -0.539728 -0.528597 -0.534488 -0.519339 0.528118 -0.522335 -0.528692 1.56696 
-0.531933 0.54593 -1.57054 -0.520125 0.519131 -0.520409 -0.523357 0.522208 0.535606 
-0.543013 0.525623 1.60162 -0.515646 1.57944 -1.59939 -0.512889 1.57992 -0.522708 
-0.510568 1.58976 0.534378 -0.514371 1.58368 1.60321 0.524523 -1.57523 -1.58092 
0.545776 -1.58887 -0.542047 0.547554 -1.57079 0.513168 0.544363 -1.58243 1.58299 
0.533654 -0.538962 -1.57663 0.521151 -0.532025 -0.541501 0.515915 -0.539079 0.530084 
0.525469 -0.543557 1.60265 0.512649 0.512609 -1.58859 0.539532 0.547935 -0.512387 
0.536564 0.523301 0.538033 0.523412 0.519434 1.57488 0.53243 1.57567 -1.60261 
0.538514 1.57093 -0.518481 0.515204 1.59636 0.510333 0.547625 1.56776 1.5865 
1.57374 -1.59878 -1.57614 1.5967 -1.58155 -0.511166 1.59277 -1.57742 0.511072 
1.57211 -1.58711 1.56842 1.5693 -0.5423 -1.59005 1.60019 -0.527066 -0.519733 
1.56838 -0.544063 0.548256 1.57475 -0.513804 1.57056 1.60727 0.509709 -1.57299 
1.56936 0.507785 -0.512958 1.59087 0.514913 0.514085 1.58243 0.545221 1.59899 
1.5812 1.58819 -1.58515 1.58514 1.59386 -0.546831 1.5881 1.59677 0.519697 
1.60729 1.58948 1.60133 
VERTICES 64 128
1 0 
1 1 
1 2 
1 3 
1 4 
1 5 
1 6 
1 7 
1 8 
1 9 
1 10 
1 11 
1 12 
1 13 
1 14 
1 15 
1 16 
1 17 
1 18 
1 19 
1 20 
1 21 
1 22 
1 23 
1 24 
1 25 
1 26 
1 27 
1 28 
1 29 
1 30 
1 31 
1 32 
1 33 
1 34 
1 35 
1 36 
1 37 
1 38 
1 39 
1 40 
1 41 
1 42 
1 43 
1 44 
1 45 
1 46 
1 47 
1 48 
1 49 
1 50 
1 51 
1 52 
1 53 
1 54 
1 55 
1 56 
1 57 
1 58 
1 59 
1 60 
1 61 
1 62 
1 63 

POINT_DATA 64
SCALARS element float
LOOKUP_TABLE default
1 1 1 1 1 1 1 1 1 
1 1 1 1 1 1 1 1 1 
1 1 1 1 1 1 1 1 1 
1 1 1 1 1 1 1 1 1 
1 1 1 1 1 1 1 1 1 
1 1 1 1 1 1 1 1 1 
1 1 1 1 1 1 1 1 1 
1 
VECTORS velocity double
0.129319 -0.0483047 0.0994479 0.115793 0.157835 -0.13399 -0.0643339 0.102012 -0.104007 
0.013379 -0.0192241 0.039438 -0.0614193 -0.0059589 0.173216 0.171848 0.0519511 0.0733721 
-0.151086 0.0380001 -0.204219 -0.106328 -0.155121 0.110668 -0.134802 -0.046106 -0.164524 
-0.161726 0.192793 -0.129356 0.00567477 0.131233 0.0307729 -0.0871128 0.0462035 -0.00598609 
-0.00330261 0.179505 -0.0906359 0.11083 0.00830008 0.0921617 -0.0386486 0.153166 -0.0952957 
-0.0543769 0.115159 0.152497 -0.172136 0.174682 -0.00391902 -0.163604 -0.136639 0.0492523 
0.158905 -0.0680145 -0.190109 -0.192655 -0.0263989 -0.192628 -0.106557 0.187121 0.146794 
0.141444 -0.108195 0.00627545 -0.0569707 0.0934937 -0.0121263 0.0647311 0.00282033 -0.196564 
-0.0321218 0.166619 0.165567 0.0870676 -0.099675 0.0870899 0.0570786 -0.0652114 0.0669644 
-0.138799 -0.0341016 0.14527 0.131473 -0.0708568 -0.116972 0.160851 -0.0732835 0.0611906 
0.177917 0.0240556 0.0552866 0.145463 -0.0344204 0.15635 -0.048243 0.113888 0.058554 
0.163891 -0.0193301 -0.128217 0.184295 0.159394 -0.157689 0.145917 0.0420469 -0.0414915 
0.0417537 -0.0972189 0.102868 -0.0738583 -0.0270903 -0.120317 -0.131609 -0.0964478 0.0104761 
-0.0352195 -0.142505 0.154007 -0.159517 -0.163836 -0.0141977 0.101041 0.182491 0.164332 
0.0752481 -0.0565444 0.0881869 -0.0572416 -0.098632 -0.119004 0.0342698 -0.112946 -0.150445 
0.0944397 -0.155806 0.0990397 -0.132945 0.0923249 -0.181834 0.186607 -0.190824 -0.0106292 
-0.130043 -0.11558 0.108301 0.0973492 0.0555455 0.173581 0.0567171 0.0939152 -0.175151 
-0.144073 0.00209096 -0.184923 -0.174592 -0.133784 -0.0298221 0.1297 0.0169394 0.0930683 
-0.18729 -0.147718 0.186713 -0.122693 0.152027 -0.159615 0.193994 -0.191221 0.142232 
-0.174507 -0.207461 0.156729 0.0377415 -0.13988 -0.142909 -0.0479724 0.160865 0.116738 
-0.0577742 0.00679078 0.0187307 -0.0171393 0.0650314 -0.175181 0.00704876 0.0945175 -0.0920679 
0.198908 0.0255195 0.138653 
