# vtk DataFile Version 3.0
vtk output
ASCII
DATASET POLYDATA
FIELD FieldData 4
BOXWIDTH 1 1 double
4.23232 
TEMP 1 1 double
0.728 
DISC 1 1 double
0.01 
MASS 1 1 double
48 
POINTS 64 double
-1.56199 -1.59639 -1.56764 -1.56448 -1.55572 -0.555441 -1.59961 -1.5667 0.508318 
-1.5849 -1.59097 1.59494 -1.59958 -0.530311 -1.55261 -1.55272 -0.518332 -0.514697 
-1.61736 -0.521233 0.488861 -1.60825 -0.559695 1.60911 -1.61329 0.520022 -1.61982 
-1.61935 0.567183 -0.554843 -1.58586 0.555222 0.534992 -1.60455 0.538175 1.58568 
-1.58771 1.62245 -1.60466 -1.56496 1.58919 -0.511011 -1.59461 1.61767 0.510449 
-1.59734 1.60986 1.617 -0.562743 -1.55228 -1.588 -0.561096 -1.61438 -0.519617 
-0.497315 -1.60043 0.491375 -0.567041 -1.59238 1.54868 -0.550156 -0.491572 -1.55815 
-0.501015 -0.550771 -0.527586 -0.540656 -0.510686 0.526297 -0.516306 -0.528517 1.54826 
-0.535749 0.562047 -1.55404 -0.511773 0.509051 -0.511527 -0.517611 0.516306 0.54254 
-0.556661 0.522229 1.61615 -0.502982 1.57352 -1.60985 -0.496955 1.57233 -0.516938 
-0.494228 1.59169 0.540237 -0.500013 1.58024 1.61778 0.519118 -1.56482 -1.57579 
0.561544 -1.59113 -0.554424 0.565741 -1.55571 0.497607 0.557437 -1.57916 1.57879 
0.5369 -0.548208 -1.56681 0.514773 -0.53423 -0.552597 0.502665 -0.547828 0.531147 
0.521997 -0.557219 1.61778 0.497485 0.496354 -1.58989 0.548721 0.564717 -0.49639 
0.544041 0.517809 0.546418 0.517457 0.509091 1.56371 0.535886 1.56463 -1.61681 
0.547894 1.55673 -0.509899 0.503111 1.60555 0.493262 0.566364 1.5492 1.58459 
1.56138 -1.6101 -1.56555 1.6067 -1.57604 -0.495065 1.59849 -1.56869 0.494675 
1.55897 -1.58654 1.55027 1.5526 -0.555834 -1.59311 1.61298 -0.525954 -0.510428 
1.54969 -0.558242 0.565623 1.56269 -0.498629 1.55597 1.62507 0.490959 -1.55859 
1.55262 0.488028 -0.498263 1.59471 0.501174 0.501185 1.5774 0.561033 1.61033 
1.57571 1.58809 -1.58352 1.58394 1.59993 -0.563701 1.58831 1.60582 0.510708 
1.62648 1.5924 1.61452 
VERTICES 64 128
1 0 
1 1 
1 2 
1 3 
1 4 
1 5 
1 6 
1 7 
1 8 
1 9 
1 10 
1 11 
1 12 
1 13 
1 14 
1 15 
1 16 
1 17 
1 18 
1 19 
1 20 
1 21 
1 22 
1 23 
1 24 
1 25 
1 26 
1 27 
1 28 
1 29 
1 30 
1 31 
1 32 
1 33 
1 34 
1 35 
1 36 
1 37 
1 38 
1 39 
1 40 
1 41 
1 42 
1 43 
1 44 
1 45 
1 46 
1 47 
1 48 
1 49 
1 50 
1 51 
1 52 
1 53 
1 54 
1 55 
1 56 
1 57 
1 58 
1 59 
1 60 
1 61 
1 62 
1 63 

POINT_DATA 64
SCALARS element float
LOOKUP_TABLE default
1 1 1 1 1 1 1 1 1 
1 1 1 1 1 1 1 1 1 
1 1 1 1 1 1 1 1 1 
1 1 1 1 1 1 1 1 1 
1 1 1 1 1 1 1 1 1 
1 1 1 1 1 1 1 1 1 
1 1 1 1 1 1 1 1 1 
1 
VECTORS velocity double
0.0963813 -0.0321123 0.0815485 0.0931527 0.148597 -0.118072 -0.0480394 0.10208 -0.100065 
-0.00844664 -0.0203055 0.0368478 -0.071068 -0.0110364 0.167453 0.173111 0.0660516 0.059159 
-0.15335 0.0467424 -0.17434 -0.10106 -0.1398 0.104197 -0.10245 -0.0352165 -0.156785 
-0.156668 0.175913 -0.127302 0.0108584 0.129629 0.0220719 -0.0890144 0.0418624 -0.0159149 
-0.000742425 0.155362 -0.064856 0.110094 0.0275515 0.072718 -0.0276549 0.151309 -0.0731887 
-0.0268195 0.103652 0.125754 -0.143435 0.168867 -0.00909139 -0.134394 -0.134784 0.0304445 
0.155272 -0.0557964 -0.175351 -0.169174 -0.025854 -0.188006 -0.0976224 0.189156 0.127609 
0.130464 -0.113558 0.0145265 -0.0678814 0.0775072 -0.0256478 0.0545475 0.000143373 -0.175033 
-0.0459098 0.15433 0.163928 0.0790441 -0.101826 0.0906227 0.0575598 -0.050896 0.072632 
-0.133867 -0.0333846 0.145683 0.120315 -0.0442585 -0.089103 0.157008 -0.0787086 0.0533291 
0.144239 0.0139281 0.0629567 0.141186 -0.0338629 0.131933 -0.0607392 0.0914698 0.0416014 
0.150878 -0.0268964 -0.118282 0.179008 0.139368 -0.152727 0.111883 0.0208109 -0.0424203 
0.0210087 -0.0864651 0.0916238 -0.0507184 -0.0164433 -0.0992534 -0.133376 -0.0761508 0.0112832 
-0.0338583 -0.129451 0.148482 -0.142024 -0.160423 -0.011988 0.0800472 0.148854 0.154261 
0.0744542 -0.0525794 0.0783553 -0.0621754 -0.108904 -0.101743 0.0351736 -0.107134 -0.132114 
0.0934795 -0.123258 0.0687266 -0.104821 0.0918329 -0.15613 0.188544 -0.179038 -0.0288795 
-0.115848 -0.11038 0.102842 0.103422 0.0539662 0.143407 0.0584345 0.0782734 -0.148193 
-0.114898 0.00963067 -0.177244 -0.156565 -0.137366 -0.0318583 0.126418 0.00322758 0.0925899 
-0.186053 -0.134421 0.156525 -0.117655 0.151378 -0.127073 0.157867 -0.182855 0.14575 
-0.157539 -0.185052 0.13339 0.0396678 -0.134131 -0.11073 -0.0529516 0.154769 0.110132 
-0.0507675 -0.0101286 0.0126193 -0.00521893 0.0559939 -0.160492 -0.00351973 0.0859643 -0.087114 
0.182805 0.0342569 0.123994 
